32 
md_simulation at step 1
1 0.000000 0.000000 0.000000 
1 0.848789 0.848789 0.000000 
1 0.848789 0.000000 0.848789 
1 0.000000 0.848789 0.848789 
1 1.697578 0.000000 0.000000 
1 2.546366 0.848789 0.000000 
1 2.546366 0.000000 0.848789 
1 1.697578 0.848789 0.848789 
1 0.000000 1.697578 0.000000 
1 0.848789 2.546366 0.000000 
1 0.848789 1.697578 0.848789 
1 0.000000 2.546366 0.848789 
1 1.697578 1.697578 0.000000 
1 2.546366 2.546366 0.000000 
1 2.546366 1.697578 0.848789 
1 1.697578 2.546366 0.848789 
1 0.000000 0.000000 1.697578 
1 0.848789 0.848789 1.697578 
1 0.848789 0.000000 2.546366 
1 0.000000 0.848789 2.546366 
1 1.697578 0.000000 1.697578 
1 2.546366 0.848789 1.697578 
1 2.546366 0.000000 2.546366 
1 1.697578 0.848789 2.546366 
1 0.000000 1.697578 1.697578 
1 0.848789 2.546366 1.697578 
1 0.848789 1.697578 2.546366 
1 0.000000 2.546366 2.546366 
1 1.697578 1.697578 1.697578 
1 2.546366 2.546366 1.697578 
1 2.546366 1.697578 2.546366 
1 1.697578 2.546366 2.546366 
