<?xml version='1.0' encoding='UTF-8'?>
<VTKFile xmlns='VTK' byte_order='LittleEndian' version='0.1' type='UnstructuredGrid'>
<UnstructuredGrid>
<Piece NumberOfCells='32' NumberOfPoints='32'>
<Points>
<DataArray NumberOfComponents='3' type='Float32' Name='Position' format='ascii'>
0.000000 0.000000 0.000000
0.848789 0.848789 0.000000
0.848789 0.000000 0.848789
0.000000 0.848789 0.848789
1.697578 0.000000 0.000000
2.546366 0.848789 0.000000
2.546366 0.000000 0.848789
1.697578 0.848789 0.848789
0.000000 1.697578 0.000000
0.848789 2.546366 0.000000
0.848789 1.697578 0.848789
0.000000 2.546366 0.848789
1.697578 1.697578 0.000000
2.546366 2.546366 0.000000
2.546366 1.697578 0.848789
1.697578 2.546366 0.848789
0.000000 0.000000 1.697578
0.848789 0.848789 1.697578
0.848789 0.000000 2.546366
0.000000 0.848789 2.546366
1.697578 0.000000 1.697578
2.546366 0.848789 1.697578
2.546366 0.000000 2.546366
1.697578 0.848789 2.546366
0.000000 1.697578 1.697578
0.848789 2.546366 1.697578
0.848789 1.697578 2.546366
0.000000 2.546366 2.546366
1.697578 1.697578 1.697578
2.546366 2.546366 1.697578
2.546366 1.697578 2.546366
1.697578 2.546366 2.546366
</DataArray>
</Points>
<PointData>
<DataArray NumberOfComponents='1' type='Int32' Name='ParticleType' format='ascii'>
1
1
1
1
1
1
1
1
1
1
1
1
1
1
1
1
1
1
1
1
1
1
1
1
1
1
1
1
1
1
1
1
</DataArray>
</PointData>
<Cells>
<DataArray type='Int32' Name='connectivity' format='ascii'>
0
1
2
3
4
5
6
7
8
9
10
11
12
13
14
15
16
17
18
19
20
21
22
23
24
25
26
27
28
29
30
31
</DataArray>
<DataArray type='Int32' Name='offsets' format='ascii'>
1
2
3
4
5
6
7
8
9
10
11
12
13
14
15
16
17
18
19
20
21
22
23
24
25
26
27
28
29
30
31
32
</DataArray>
<DataArray type='UInt8' Name='types' format='ascii'>
1
1
1
1
1
1
1
1
1
1
1
1
1
1
1
1
1
1
1
1
1
1
1
1
1
1
1
1
1
1
1
1
</DataArray>
</Cells>
</Piece>
</UnstructuredGrid>
</VTKFile>
